<?xml version="1.0" encoding="UTF-8"?>

<!-- generated on 05/09/19 10:53:37 by Eclipse SUMO Version 1.1.0
<configuration xmlns:xsi="http://www.w3.org/2001/XMLSchema-instance" xsi:noNamespaceSchemaLocation="http://sumo.dlr.de/xsd/sumoConfiguration.xsd">

    <input>
        <net-file value="net.net.xml"/>
        <route-files value="input_routes_mod.rou.xml"/>
    </input>

    <output>
        <fcd-output value="fcd.xml"/>
        <tripinfo-output value="tripinfos.xml"/>
    </output>

    <processing>
        <lateral-resolution value="0.64"/>
    </processing>

    <report>
        <verbose value="true"/>
        <xml-validation value="never"/>
        <duration-log.statistics value="true"/>
        <no-step-log value="true"/>
    </report>

    <traci_server>
        <remote-port value="50358"/>
    </traci_server>

</configuration>
-->

<fcd-export xmlns:xsi="http://www.w3.org/2001/XMLSchema-instance" xsi:noNamespaceSchemaLocation="http://sumo.dlr.de/xsd/fcd_file.xsd">
    <timestep time="0.00">
        <vehicle id="mixed.0" x="5.10" y="-4.65" angle="90.00" type="car" speed="0.00" pos="5.10" lane="beg_0" slope="0.00"/>
    </timestep>
    <timestep time="1.00">
        <vehicle id="mixed.0" x="7.64" y="-4.95" angle="92.26" type="car" speed="2.54" pos="7.64" lane="beg_0" slope="0.00"/>
        <vehicle id="mixed.1" x="5.10" y="-1.52" angle="90.00" type="car" speed="0.00" pos="5.10" lane="beg_1" slope="0.00"/>
    </timestep>
    <timestep time="2.00">
        <vehicle id="mixed.0" x="11.82" y="-4.95" angle="90.00" type="car" speed="4.17" pos="11.82" lane="beg_0" slope="0.00"/>
        <vehicle id="mixed.1" x="7.64" y="-1.65" angle="90.96" type="car" speed="2.54" pos="7.64" lane="beg_1" slope="0.00"/>
    </timestep>
    <timestep time="3.00">
        <vehicle id="mixed.0" x="18.58" y="-4.95" angle="90.00" type="car" speed="6.77" pos="18.58" lane="beg_0" slope="0.00"/>
        <vehicle id="mixed.1" x="11.82" y="-1.65" angle="90.00" type="car" speed="4.17" pos="11.82" lane="beg_1" slope="0.00"/>
    </timestep>
    <timestep time="4.00">
        <vehicle id="mixed.0" x="27.61" y="-4.95" angle="90.00" type="car" speed="9.02" pos="27.61" lane="beg_0" slope="0.00"/>
        <vehicle id="mixed.1" x="17.86" y="-1.65" angle="90.00" type="car" speed="6.04" pos="17.86" lane="beg_1" slope="0.00"/>
        <vehicle id="mixed.2" x="5.10" y="-1.12" angle="90.00" type="car" speed="0.00" pos="5.10" lane="beg_1" slope="0.00"/>
        <vehicle id="mixed.3" x="5.10" y="-4.69" angle="90.00" type="car" speed="0.00" pos="5.10" lane="beg_0" slope="0.00"/>
    </timestep>
    <timestep time="5.00">
        <vehicle id="mixed.0" x="38.01" y="-4.95" angle="90.00" type="car" speed="10.40" pos="38.01" lane="beg_0" slope="0.00"/>
        <vehicle id="mixed.1" x="26.10" y="-1.65" angle="90.00" type="car" speed="8.24" pos="26.10" lane="beg_1" slope="0.00"/>
        <vehicle id="mixed.2" x="6.88" y="-1.65" angle="94.44" type="car" speed="1.78" pos="6.88" lane="beg_1" slope="0.00"/>
        <vehicle id="mixed.3" x="6.63" y="-4.95" angle="92.25" type="car" speed="1.53" pos="6.63" lane="beg_0" slope="0.00"/>
    </timestep>
    <timestep time="6.00">
        <vehicle id="mixed.0" x="49.19" y="-4.95" angle="90.00" type="car" speed="11.18" pos="49.19" lane="beg_0" slope="0.00"/>
        <vehicle id="mixed.1" x="35.48" y="-1.65" angle="90.00" type="car" speed="9.38" pos="35.48" lane="beg_1" slope="0.00"/>
        <vehicle id="mixed.2" x="10.86" y="-1.65" angle="90.00" type="car" speed="3.98" pos="10.86" lane="beg_1" slope="0.00"/>
        <vehicle id="mixed.3" x="10.55" y="-4.95" angle="90.00" type="car" speed="3.92" pos="10.55" lane="beg_0" slope="0.00"/>
        <vehicle id="mixed.4" x="1.70" y="-2.85" angle="90.00" type="bicycle" speed="0.00" pos="1.70" lane="beg_1" slope="0.00"/>
    </timestep>
    <timestep time="7.00">
        <vehicle id="mixed.0" x="61.02" y="-4.95" angle="90.00" type="car" speed="11.83" pos="61.02" lane="beg_0" slope="0.00"/>
        <vehicle id="mixed.1" x="44.74" y="-1.65" angle="90.00" type="car" speed="9.26" pos="44.74" lane="beg_1" slope="0.00"/>
        <vehicle id="mixed.2" x="16.91" y="-1.65" angle="90.00" type="car" speed="6.05" pos="16.91" lane="beg_1" slope="0.00"/>
        <vehicle id="mixed.3" x="16.78" y="-4.95" angle="90.00" type="car" speed="6.23" pos="16.78" lane="beg_0" slope="0.00"/>
        <vehicle id="mixed.4" x="2.32" y="-3.66" angle="107.86" type="bicycle" speed="0.62" pos="2.32" lane="beg_0" slope="0.00"/>
        <vehicle id="mixed.5" x="5.10" y="-1.55" angle="90.00" type="car" speed="0.00" pos="5.10" lane="beg_1" slope="0.00"/>
    </timestep>
    <timestep time="8.00">
        <vehicle id="mixed.0" x="72.30" y="-4.95" angle="90.00" type="car" speed="11.28" pos="72.30" lane="beg_0" slope="0.00"/>
        <vehicle id="mixed.1" x="53.29" y="-1.65" angle="90.00" type="car" speed="8.55" pos="53.29" lane="beg_1" slope="0.00"/>
        <vehicle id="mixed.2" x="24.63" y="-1.65" angle="90.00" type="car" speed="7.72" pos="24.63" lane="beg_1" slope="0.00"/>
        <vehicle id="mixed.3" x="24.40" y="-4.95" angle="90.00" type="car" speed="7.62" pos="24.40" lane="beg_0" slope="0.00"/>
        <vehicle id="mixed.4" x="3.57" y="-4.30" angle="102.68" type="bicycle" speed="1.25" pos="3.57" lane="beg_0" slope="0.00"/>
        <vehicle id="mixed.5" x="6.92" y="-1.65" angle="90.84" type="car" speed="1.82" pos="6.92" lane="beg_1" slope="0.00"/>
    </timestep>
    <timestep time="9.00">
        <vehicle id="mixed.0" x="84.44" y="-4.95" angle="90.00" type="car" speed="12.14" pos="84.44" lane="beg_0" slope="0.00"/>
        <vehicle id="mixed.1" x="62.47" y="-2.65" angle="94.03" type="car" speed="9.18" pos="62.47" lane="beg_1" slope="0.00"/>
        <vehicle id="mixed.2" x="32.99" y="-2.39" angle="93.16" type="car" speed="8.36" pos="32.99" lane="beg_1" slope="0.00"/>
        <vehicle id="mixed.3" x="34.25" y="-4.95" angle="90.00" type="car" speed="9.85" pos="34.25" lane="beg_0" slope="0.00"/>
        <vehicle id="mixed.4" x="5.68" y="-4.94" angle="99.77" type="bicycle" speed="2.12" pos="5.68" lane="beg_0" slope="0.00"/>
        <vehicle id="mixed.5" x="11.15" y="-1.65" angle="90.00" type="car" speed="4.23" pos="11.15" lane="beg_1" slope="0.00"/>
    </timestep>
    <timestep time="10.00">
        <vehicle id="mixed.0" x="96.38" y="-4.95" angle="90.00" type="car" speed="11.94" pos="96.38" lane="beg_0" slope="0.00"/>
        <vehicle id="mixed.1" x="71.78" y="-2.65" angle="90.00" type="car" speed="9.31" pos="71.78" lane="beg_1" slope="0.00"/>
        <vehicle id="mixed.2" x="41.45" y="-2.39" angle="90.00" type="car" speed="8.46" pos="41.45" lane="beg_1" slope="0.00"/>
        <vehicle id="mixed.3" x="46.64" y="-4.95" angle="90.00" type="car" speed="12.39" pos="46.64" lane="beg_0" slope="0.00"/>
        <vehicle id="mixed.4" x="8.95" y="-5.58" angle="97.49" type="bicycle" speed="3.27" pos="8.95" lane="beg_0" slope="0.00"/>
        <vehicle id="mixed.5" x="17.71" y="-1.65" angle="90.00" type="car" speed="6.56" pos="17.71" lane="beg_1" slope="0.00"/>
        <vehicle id="mixed.7" x="5.10" y="-2.05" angle="90.00" type="car" speed="0.00" pos="5.10" lane="beg_1" slope="0.00"/>
    </timestep>
    <timestep time="11.00">
        <vehicle id="mixed.0" x="108.08" y="-4.95" angle="90.00" type="car" speed="11.70" pos="108.08" lane="beg_0" slope="0.00"/>
        <vehicle id="mixed.1" x="80.54" y="-2.65" angle="90.00" type="car" speed="8.76" pos="80.54" lane="beg_1" slope="0.00"/>
        <vehicle id="mixed.2" x="49.57" y="-3.49" angle="94.36" type="car" speed="8.12" pos="49.57" lane="beg_0" slope="0.00"/>
        <vehicle id="mixed.3" x="59.14" y="-4.95" angle="90.00" type="car" speed="12.49" pos="59.14" lane="beg_0" slope="0.00"/>
        <vehicle id="mixed.4" x="13.41" y="-6.22" angle="96.03" type="bicycle" speed="4.45" pos="13.41" lane="beg_0" slope="0.00"/>
        <vehicle id="mixed.5" x="26.11" y="-1.07" angle="87.52" type="car" speed="8.40" pos="26.11" lane="beg_1" slope="0.00"/>
        <vehicle id="mixed.6" x="5.10" y="-5.50" angle="90.00" type="car" speed="0.00" pos="5.10" lane="beg_0" slope="0.00"/>
        <vehicle id="mixed.7" x="7.16" y="-1.65" angle="86.73" type="car" speed="2.06" pos="7.16" lane="beg_1" slope="0.00"/>
    </timestep>
    <timestep time="12.00">
        <vehicle id="mixed.0" x="119.00" y="-4.95" angle="90.00" type="car" speed="10.91" pos="119.00" lane="beg_0" slope="0.00"/>
        <vehicle id="mixed.1" x="89.37" y="-2.65" angle="90.00" type="car" speed="8.83" pos="89.37" lane="beg_1" slope="0.00"/>
        <vehicle id="mixed.2" x="58.06" y="-4.49" angle="94.24" type="car" speed="8.48" pos="58.06" lane="beg_0" slope="0.00"/>
        <vehicle id="mixed.3" x="72.51" y="-4.95" angle="90.00" type="car" speed="13.38" pos="72.51" lane="beg_0" slope="0.00"/>
        <vehicle id="mixed.4" x="18.86" y="-6.22" angle="90.00" type="bicycle" speed="5.45" pos="18.86" lane="beg_0" slope="0.00"/>
        <vehicle id="mixed.5" x="35.97" y="-1.07" angle="90.00" type="car" speed="9.86" pos="35.97" lane="beg_1" slope="0.00"/>
        <vehicle id="mixed.6" x="6.79" y="-4.50" angle="81.50" type="car" speed="1.69" pos="6.79" lane="beg_0" slope="0.00"/>
        <vehicle id="mixed.7" x="11.07" y="-1.65" angle="90.00" type="car" speed="3.91" pos="11.07" lane="beg_1" slope="0.00"/>
    </timestep>
    <timestep time="13.00">
        <vehicle id="mixed.0" x="130.69" y="-4.95" angle="90.00" type="car" speed="11.69" pos="130.69" lane="beg_0" slope="0.00"/>
        <vehicle id="mixed.1" x="97.86" y="-2.65" angle="90.00" type="car" speed="8.50" pos="97.86" lane="beg_1" slope="0.00"/>
        <vehicle id="mixed.10" x="1.70" y="-4.53" angle="90.00" type="bicycle" speed="0.00" pos="1.70" lane="beg_0" slope="0.00"/>
        <vehicle id="mixed.2" x="67.20" y="-4.95" angle="91.87" type="car" speed="9.14" pos="67.20" lane="beg_0" slope="0.00"/>
        <vehicle id="mixed.3" x="85.65" y="-4.95" angle="90.00" type="car" speed="13.14" pos="85.65" lane="beg_0" slope="0.00"/>
        <vehicle id="mixed.4" x="25.27" y="-6.22" angle="90.00" type="bicycle" speed="6.41" pos="25.27" lane="beg_0" slope="0.00"/>
        <vehicle id="mixed.5" x="48.25" y="-1.65" angle="91.92" type="car" speed="12.28" pos="48.25" lane="beg_1" slope="0.00"/>
        <vehicle id="mixed.6" x="10.20" y="-4.37" angle="89.09" type="car" speed="3.41" pos="10.20" lane="beg_0" slope="0.00"/>
        <vehicle id="mixed.7" x="16.43" y="-1.65" angle="90.00" type="car" speed="5.37" pos="16.43" lane="beg_1" slope="0.00"/>
        <vehicle id="mixed.8" x="5.10" y="-1.17" angle="90.00" type="car" speed="0.00" pos="5.10" lane="beg_1" slope="0.00"/>
    </timestep>
    <timestep time="14.00">
        <vehicle id="mixed.0" x="141.75" y="-4.95" angle="90.00" type="car" speed="11.06" pos="141.75" lane="beg_0" slope="0.00"/>
        <vehicle id="mixed.1" x="106.40" y="-2.65" angle="90.00" type="car" speed="8.54" pos="106.40" lane="beg_1" slope="0.00"/>
        <vehicle id="mixed.10" x="2.89" y="-5.53" angle="109.71" type="bicycle" speed="1.19" pos="2.89" lane="beg_0" slope="0.00"/>
        <vehicle id="mixed.2" x="75.33" y="-4.95" angle="90.00" type="car" speed="8.13" pos="75.33" lane="beg_0" slope="0.00"/>
        <vehicle id="mixed.3" x="98.58" y="-4.95" angle="90.00" type="car" speed="12.93" pos="98.58" lane="beg_0" slope="0.00"/>
        <vehicle id="mixed.4" x="32.26" y="-6.22" angle="90.00" type="bicycle" speed="6.99" pos="32.26" lane="beg_0" slope="0.00"/>
        <vehicle id="mixed.5" x="61.73" y="-1.65" angle="90.00" type="car" speed="13.48" pos="61.73" lane="beg_1" slope="0.00"/>
        <vehicle id="mixed.6" x="15.50" y="-4.37" angle="90.00" type="car" speed="5.30" pos="15.50" lane="beg_0" slope="0.00"/>
        <vehicle id="mixed.7" x="23.65" y="-1.65" angle="90.00" type="car" speed="7.22" pos="23.65" lane="beg_1" slope="0.00"/>
        <vehicle id="mixed.8" x="7.57" y="-1.65" angle="93.71" type="car" speed="2.47" pos="7.57" lane="beg_1" slope="0.00"/>
    </timestep>
    <timestep time="15.00">
        <vehicle id="mixed.0" x="152.73" y="-4.95" angle="90.00" type="car" speed="10.98" pos="152.73" lane="beg_0" slope="0.00"/>
        <vehicle id="mixed.1" x="115.21" y="-2.65" angle="90.00" type="car" speed="8.81" pos="115.21" lane="beg_1" slope="0.00"/>
        <vehicle id="mixed.10" x="5.21" y="-6.22" angle="99.99" type="bicycle" speed="2.32" pos="5.21" lane="beg_0" slope="0.00"/>
        <vehicle id="mixed.11" x="5.10" y="-4.25" angle="90.00" type="car" speed="0.00" pos="5.10" lane="beg_0" slope="0.00"/>
        <vehicle id="mixed.2" x="83.89" y="-4.95" angle="90.00" type="car" speed="8.56" pos="83.89" lane="beg_0" slope="0.00"/>
        <vehicle id="mixed.3" x="112.33" y="-5.49" angle="91.65" type="car" speed="13.75" pos="112.33" lane="beg_0" slope="0.00"/>
        <vehicle id="mixed.4" x="39.27" y="-6.22" angle="90.00" type="bicycle" speed="7.01" pos="39.27" lane="beg_0" slope="0.00"/>
        <vehicle id="mixed.5" x="75.54" y="-1.65" angle="90.00" type="car" speed="13.81" pos="75.54" lane="beg_1" slope="0.00"/>
        <vehicle id="mixed.6" x="22.87" y="-4.37" angle="90.00" type="car" speed="7.36" pos="22.87" lane="beg_0" slope="0.00"/>
        <vehicle id="mixed.7" x="33.47" y="-1.65" angle="90.00" type="car" speed="9.82" pos="33.47" lane="beg_1" slope="0.00"/>
        <vehicle id="mixed.8" x="11.78" y="-1.65" angle="90.00" type="car" speed="4.21" pos="11.78" lane="beg_1" slope="0.00"/>
    </timestep>
    <timestep time="16.00">
        <vehicle id="mixed.0" x="164.49" y="-4.95" angle="90.00" type="car" speed="11.76" pos="164.49" lane="beg_0" slope="0.00"/>
        <vehicle id="mixed.1" x="124.20" y="-2.65" angle="90.00" type="car" speed="8.99" pos="124.20" lane="beg_1" slope="0.00"/>
        <vehicle id="mixed.10" x="8.64" y="-6.22" angle="90.00" type="bicycle" speed="3.43" pos="8.64" lane="beg_0" slope="0.00"/>
        <vehicle id="mixed.11" x="6.95" y="-3.77" angle="85.94" type="car" speed="1.85" pos="6.95" lane="beg_0" slope="0.00"/>
        <vehicle id="mixed.12" x="1.70" y="-5.98" angle="90.00" type="bicycle" speed="0.00" pos="1.70" lane="beg_0" slope="0.00"/>
        <vehicle id="mixed.2" x="92.51" y="-4.95" angle="90.00" type="car" speed="8.62" pos="92.51" lane="beg_0" slope="0.00"/>
        <vehicle id="mixed.3" x="125.15" y="-5.49" angle="90.00" type="car" speed="12.82" pos="125.15" lane="beg_0" slope="0.00"/>
        <vehicle id="mixed.4" x="46.61" y="-6.22" angle="90.00" type="bicycle" speed="7.34" pos="46.61" lane="beg_0" slope="0.00"/>
        <vehicle id="mixed.5" x="89.53" y="-1.65" angle="90.00" type="car" speed="13.98" pos="89.53" lane="beg_1" slope="0.00"/>
        <vehicle id="mixed.6" x="31.79" y="-4.37" angle="90.00" type="car" speed="8.92" pos="31.79" lane="beg_0" slope="0.00"/>
        <vehicle id="mixed.7" x="45.02" y="-1.65" angle="90.00" type="car" speed="11.55" pos="45.02" lane="beg_1" slope="0.00"/>
        <vehicle id="mixed.8" x="18.01" y="-1.65" angle="90.00" type="car" speed="6.23" pos="18.01" lane="beg_1" slope="0.00"/>
        <vehicle id="mixed.9" x="5.10" y="-1.24" angle="90.00" type="car" speed="0.00" pos="5.10" lane="beg_1" slope="0.00"/>
    </timestep>
    <timestep time="17.00">
        <vehicle id="mixed.0" x="176.38" y="-4.95" angle="90.00" type="car" speed="11.89" pos="176.38" lane="beg_0" slope="0.00"/>
        <vehicle id="mixed.1" x="132.52" y="-2.65" angle="90.00" type="car" speed="8.32" pos="132.52" lane="beg_1" slope="0.00"/>
        <vehicle id="mixed.10" x="13.22" y="-6.22" angle="90.00" type="bicycle" speed="4.58" pos="13.22" lane="beg_0" slope="0.00"/>
        <vehicle id="mixed.11" x="10.65" y="-3.77" angle="90.00" type="car" speed="3.71" pos="10.65" lane="beg_0" slope="0.00"/>
        <vehicle id="mixed.12" x="2.88" y="-6.22" angle="95.11" type="bicycle" speed="1.18" pos="2.88" lane="beg_0" slope="0.00"/>
        <vehicle id="mixed.2" x="100.96" y="-4.95" angle="90.00" type="car" speed="8.46" pos="100.96" lane="beg_0" slope="0.00"/>
        <vehicle id="mixed.3" x="137.72" y="-5.49" angle="90.00" type="car" speed="12.57" pos="137.72" lane="beg_0" slope="0.00"/>
        <vehicle id="mixed.4" x="53.69" y="-6.22" angle="90.00" type="bicycle" speed="7.08" pos="53.69" lane="beg_0" slope="0.00"/>
        <vehicle id="mixed.5" x="103.17" y="-1.65" angle="90.00" type="car" speed="13.65" pos="103.17" lane="beg_1" slope="0.00"/>
        <vehicle id="mixed.6" x="42.78" y="-4.37" angle="90.00" type="car" speed="11.00" pos="42.78" lane="beg_0" slope="0.00"/>
        <vehicle id="mixed.7" x="56.52" y="-1.65" angle="90.00" type="car" speed="11.50" pos="56.52" lane="beg_1" slope="0.00"/>
        <vehicle id="mixed.8" x="26.53" y="-1.65" angle="90.00" type="car" speed="8.52" pos="26.53" lane="beg_1" slope="0.00"/>
        <vehicle id="mixed.9" x="6.48" y="-1.11" angle="88.78" type="car" speed="1.38" pos="6.48" lane="beg_1" slope="0.00"/>
    </timestep>
    <timestep time="18.00">
        <vehicle id="mixed.0" x="188.31" y="-4.95" angle="90.00" type="car" speed="11.93" pos="188.31" lane="beg_0" slope="0.00"/>
        <vehicle id="mixed.1" x="141.83" y="-2.65" angle="90.00" type="car" speed="9.31" pos="141.83" lane="beg_1" slope="0.00"/>
        <vehicle id="mixed.10" x="18.99" y="-6.22" angle="90.00" type="bicycle" speed="5.77" pos="18.99" lane="beg_0" slope="0.00"/>
        <vehicle id="mixed.11" x="16.21" y="-3.77" angle="90.00" type="car" speed="5.55" pos="16.21" lane="beg_0" slope="0.00"/>
        <vehicle id="mixed.12" x="5.12" y="-6.22" angle="90.00" type="bicycle" speed="2.24" pos="5.12" lane="beg_0" slope="0.00"/>
        <vehicle id="mixed.13" x="5.10" y="-4.33" angle="90.00" type="car" speed="0.00" pos="5.10" lane="beg_0" slope="0.00"/>
        <vehicle id="mixed.14" x="1.70" y="-5.66" angle="90.00" type="bicycle" speed="0.00" pos="1.70" lane="beg_0" slope="0.00"/>
        <vehicle id="mixed.2" x="109.65" y="-4.95" angle="90.00" type="car" speed="8.68" pos="109.65" lane="beg_0" slope="0.00"/>
        <vehicle id="mixed.3" x="150.21" y="-5.49" angle="90.00" type="car" speed="12.49" pos="150.21" lane="beg_0" slope="0.00"/>
        <vehicle id="mixed.4" x="61.18" y="-6.22" angle="90.00" type="bicycle" speed="7.49" pos="61.18" lane="beg_0" slope="0.00"/>
        <vehicle id="mixed.5" x="115.67" y="-1.65" angle="90.00" type="car" speed="12.49" pos="115.67" lane="beg_1" slope="0.00"/>
        <vehicle id="mixed.6" x="55.69" y="-4.37" angle="90.00" type="car" speed="12.91" pos="55.69" lane="beg_0" slope="0.00"/>
        <vehicle id="mixed.7" x="67.24" y="-1.65" angle="90.00" type="car" speed="10.72" pos="67.24" lane="beg_1" slope="0.00"/>
        <vehicle id="mixed.8" x="36.68" y="-1.65" angle="90.00" type="car" speed="10.16" pos="36.68" lane="beg_1" slope="0.00"/>
        <vehicle id="mixed.9" x="9.67" y="-1.11" angle="90.00" type="car" speed="3.19" pos="9.67" lane="beg_1" slope="0.00"/>
    </timestep>
    <timestep time="19.00">
        <vehicle id="mixed.0" x="200.01" y="-4.95" angle="90.00" type="car" speed="11.70" pos="200.01" lane="beg_0" slope="0.00"/>
        <vehicle id="mixed.1" x="150.86" y="-3.75" angle="94.08" type="car" speed="9.03" pos="150.86" lane="beg_0" slope="0.00"/>
        <vehicle id="mixed.10" x="25.94" y="-6.22" angle="90.00" type="bicycle" speed="6.95" pos="25.94" lane="beg_0" slope="0.00"/>
        <vehicle id="mixed.11" x="24.32" y="-3.77" angle="90.00" type="car" speed="8.11" pos="24.32" lane="beg_0" slope="0.00"/>
        <vehicle id="mixed.12" x="8.01" y="-6.22" angle="90.00" type="bicycle" speed="2.89" pos="8.01" lane="beg_0" slope="0.00"/>
        <vehicle id="mixed.13" x="7.44" y="-3.99" angle="87.34" type="car" speed="2.34" pos="7.44" lane="beg_0" slope="0.00"/>
        <vehicle id="mixed.14" x="2.26" y="-5.66" angle="90.00" type="bicycle" speed="0.56" pos="2.26" lane="beg_0" slope="0.00"/>
        <vehicle id="mixed.2" x="118.57" y="-4.95" angle="90.00" type="car" speed="8.92" pos="118.57" lane="beg_0" slope="0.00"/>
        <vehicle id="mixed.3" x="163.95" y="-5.49" angle="90.00" type="car" speed="13.75" pos="163.95" lane="beg_0" slope="0.00"/>
        <vehicle id="mixed.4" x="68.39" y="-6.22" angle="90.00" type="bicycle" speed="7.21" pos="68.39" lane="beg_0" slope="0.00"/>
        <vehicle id="mixed.5" x="127.11" y="-1.65" angle="90.00" type="car" speed="11.44" pos="127.11" lane="beg_1" slope="0.00"/>
        <vehicle id="mixed.6" x="71.14" y="-3.99" angle="88.94" type="car" speed="15.45" pos="71.14" lane="beg_0" slope="0.00"/>
        <vehicle id="mixed.7" x="77.90" y="-1.65" angle="90.00" type="car" speed="10.67" pos="77.90" lane="beg_1" slope="0.00"/>
        <vehicle id="mixed.8" x="49.04" y="-1.65" angle="90.00" type="car" speed="12.36" pos="49.04" lane="beg_1" slope="0.00"/>
        <vehicle id="mixed.9" x="14.24" y="-1.65" angle="93.24" type="car" speed="4.57" pos="14.24" lane="beg_1" slope="0.00"/>
    </timestep>
    <timestep time="20.00">
        <vehicle id="mixed.0" x="211.74" y="-4.95" angle="90.00" type="car" speed="11.73" pos="211.74" lane="beg_0" slope="0.00"/>
        <vehicle id="mixed.1" x="159.90" y="-4.75" angle="94.07" type="car" speed="9.04" pos="159.90" lane="beg_0" slope="0.00"/>
        <vehicle id="mixed.10" x="33.70" y="-6.22" angle="90.00" type="bicycle" speed="7.76" pos="33.70" lane="beg_0" slope="0.00"/>
        <vehicle id="mixed.11" x="34.72" y="-3.77" angle="90.00" type="car" speed="10.40" pos="34.72" lane="beg_0" slope="0.00"/>
        <vehicle id="mixed.12" x="11.50" y="-6.22" angle="90.00" type="bicycle" speed="3.49" pos="11.50" lane="beg_0" slope="0.00"/>
        <vehicle id="mixed.13" x="11.21" y="-3.77" angle="88.55" type="car" speed="3.78" pos="11.21" lane="beg_0" slope="0.00"/>
        <vehicle id="mixed.14" x="3.62" y="-4.66" angle="71.36" type="bicycle" speed="1.36" pos="3.62" lane="beg_0" slope="0.00"/>
        <vehicle id="mixed.16" x="1.70" y="-2.90" angle="90.00" type="bicycle" speed="0.00" pos="1.70" lane="beg_1" slope="0.00"/>
        <vehicle id="mixed.17" x="5.10" y="-1.06" angle="90.00" type="car" speed="0.00" pos="5.10" lane="beg_1" slope="0.00"/>
        <vehicle id="mixed.2" x="127.57" y="-4.95" angle="90.00" type="car" speed="9.00" pos="127.57" lane="beg_0" slope="0.00"/>
        <vehicle id="mixed.3" x="176.56" y="-5.49" angle="90.00" type="car" speed="12.61" pos="176.56" lane="beg_0" slope="0.00"/>
        <vehicle id="mixed.4" x="75.82" y="-6.22" angle="90.00" type="bicycle" speed="7.43" pos="75.82" lane="beg_0" slope="0.00"/>
        <vehicle id="mixed.5" x="140.23" y="-1.65" angle="90.00" type="car" speed="13.12" pos="140.23" lane="beg_1" slope="0.00"/>
        <vehicle id="mixed.6" x="87.13" y="-4.21" angle="90.60" type="car" speed="15.99" pos="87.13" lane="beg_0" slope="0.00"/>
        <vehicle id="mixed.7" x="88.62" y="-1.11" angle="88.03" type="car" speed="10.71" pos="88.62" lane="beg_1" slope="0.00"/>
        <vehicle id="mixed.8" x="62.47" y="-1.65" angle="90.00" type="car" speed="13.43" pos="62.47" lane="beg_1" slope="0.00"/>
        <vehicle id="mixed.9" x="20.91" y="-1.65" angle="90.00" type="car" speed="6.67" pos="20.91" lane="beg_1" slope="0.00"/>
    </timestep>
    <timestep time="21.00">
        <vehicle id="mixed.0" x="222.82" y="-4.95" angle="90.00" type="car" speed="11.08" pos="222.82" lane="beg_0" slope="0.00"/>
        <vehicle id="mixed.1" x="168.12" y="-4.95" angle="90.87" type="car" speed="8.22" pos="168.12" lane="beg_0" slope="0.00"/>
        <vehicle id="mixed.10" x="42.42" y="-6.22" angle="90.00" type="bicycle" speed="8.72" pos="42.42" lane="beg_0" slope="0.00"/>
        <vehicle id="mixed.11" x="47.32" y="-3.77" angle="90.00" type="car" speed="12.60" pos="47.32" lane="beg_0" slope="0.00"/>
        <vehicle id="mixed.12" x="15.66" y="-6.22" angle="90.00" type="bicycle" speed="4.15" pos="15.66" lane="beg_0" slope="0.00"/>
        <vehicle id="mixed.13" x="16.35" y="-3.77" angle="90.00" type="car" speed="5.14" pos="16.35" lane="beg_0" slope="0.00"/>
        <vehicle id="mixed.14" x="4.67" y="-4.66" angle="90.00" type="bicycle" speed="1.05" pos="4.67" lane="beg_0" slope="0.00"/>
        <vehicle id="mixed.16" x="2.58" y="-2.96" angle="91.54" type="bicycle" speed="0.88" pos="2.58" lane="beg_1" slope="0.00"/>
        <vehicle id="mixed.17" x="7.46" y="-1.06" angle="90.00" type="car" speed="2.36" pos="7.46" lane="beg_1" slope="0.00"/>
        <vehicle id="mixed.2" x="136.45" y="-4.95" angle="90.00" type="car" speed="8.88" pos="136.45" lane="beg_0" slope="0.00"/>
        <vehicle id="mixed.3" x="189.48" y="-5.49" angle="90.00" type="car" speed="12.92" pos="189.48" lane="beg_0" slope="0.00"/>
        <vehicle id="mixed.4" x="83.07" y="-6.22" angle="90.00" type="bicycle" speed="7.25" pos="83.07" lane="beg_0" slope="0.00"/>
        <vehicle id="mixed.5" x="154.45" y="-1.65" angle="90.00" type="car" speed="14.22" pos="154.45" lane="beg_1" slope="0.00"/>
        <vehicle id="mixed.6" x="102.08" y="-4.21" angle="90.00" type="car" speed="14.94" pos="102.08" lane="beg_0" slope="0.00"/>
        <vehicle id="mixed.7" x="99.61" y="-1.11" angle="90.00" type="car" speed="11.00" pos="99.61" lane="beg_1" slope="0.00"/>
        <vehicle id="mixed.8" x="75.22" y="-2.65" angle="93.23" type="car" speed="12.75" pos="75.22" lane="beg_1" slope="0.00"/>
        <vehicle id="mixed.9" x="29.67" y="-1.65" angle="90.00" type="car" speed="8.76" pos="29.67" lane="beg_1" slope="0.00"/>
    </timestep>
    <timestep time="22.00">
        <vehicle id="mixed.0" x="234.54" y="-4.95" angle="90.00" type="car" speed="11.72" pos="234.54" lane="beg_0" slope="0.00"/>
        <vehicle id="mixed.1" x="176.26" y="-4.95" angle="90.00" type="car" speed="8.14" pos="176.26" lane="beg_0" slope="0.00"/>
        <vehicle id="mixed.10" x="52.09" y="-6.22" angle="90.00" type="bicycle" speed="9.68" pos="52.09" lane="beg_0" slope="0.00"/>
        <vehicle id="mixed.11" x="62.09" y="-3.77" angle="90.00" type="car" speed="14.76" pos="62.09" lane="beg_0" slope="0.00"/>
        <vehicle id="mixed.12" x="20.98" y="-6.22" angle="90.00" type="bicycle" speed="5.33" pos="20.98" lane="beg_0" slope="0.00"/>
        <vehicle id="mixed.13" x="23.38" y="-3.77" angle="90.00" type="car" speed="7.03" pos="23.38" lane="beg_0" slope="0.00"/>
        <vehicle id="mixed.14" x="6.51" y="-4.66" angle="90.00" type="bicycle" speed="1.84" pos="6.51" lane="beg_0" slope="0.00"/>
        <vehicle id="mixed.16" x="4.15" y="-2.96" angle="90.00" type="bicycle" speed="1.57" pos="4.15" lane="beg_1" slope="0.00"/>
        <vehicle id="mixed.17" x="12.32" y="-1.65" angle="93.40" type="car" speed="4.86" pos="12.32" lane="beg_1" slope="0.00"/>
        <vehicle id="mixed.2" x="144.53" y="-4.95" angle="90.00" type="car" speed="8.08" pos="144.53" lane="beg_0" slope="0.00"/>
        <vehicle id="mixed.3" x="203.23" y="-4.95" angle="88.35" type="car" speed="13.75" pos="203.23" lane="beg_0" slope="0.00"/>
        <vehicle id="mixed.4" x="90.59" y="-6.22" angle="90.00" type="bicycle" speed="7.52" pos="90.59" lane="beg_0" slope="0.00"/>
        <vehicle id="mixed.5" x="168.15" y="-1.65" angle="90.00" type="car" speed="13.70" pos="168.15" lane="beg_1" slope="0.00"/>
        <vehicle id="mixed.6" x="116.45" y="-4.21" angle="90.00" type="car" speed="14.38" pos="116.45" lane="beg_0" slope="0.00"/>
        <vehicle id="mixed.7" x="110.11" y="-1.11" angle="90.00" type="car" speed="10.50" pos="110.11" lane="beg_1" slope="0.00"/>
        <vehicle id="mixed.8" x="87.02" y="-3.75" angle="93.41" type="car" speed="11.81" pos="87.02" lane="beg_0" slope="0.00"/>
        <vehicle id="mixed.9" x="40.38" y="-1.65" angle="90.00" type="car" speed="10.71" pos="40.38" lane="beg_1" slope="0.00"/>
    </timestep>
    <timestep time="23.00">
        <vehicle id="mixed.0" x="246.57" y="-4.95" angle="90.00" type="car" speed="12.03" pos="246.57" lane="beg_0" slope="0.00"/>
        <vehicle id="mixed.1" x="185.57" y="-4.95" angle="90.00" type="car" speed="9.32" pos="185.57" lane="beg_0" slope="0.00"/>
        <vehicle id="mixed.10" x="61.88" y="-6.22" angle="90.00" type="bicycle" speed="9.79" pos="61.88" lane="beg_0" slope="0.00"/>
        <vehicle id="mixed.11" x="74.45" y="-3.77" angle="90.00" type="car" speed="12.37" pos="74.45" lane="beg_0" slope="0.00"/>
        <vehicle id="mixed.12" x="26.98" y="-6.22" angle="90.00" type="bicycle" speed="6.00" pos="26.98" lane="beg_0" slope="0.00"/>
        <vehicle id="mixed.13" x="32.32" y="-3.77" angle="90.00" type="car" speed="8.94" pos="32.32" lane="beg_0" slope="0.00"/>
        <vehicle id="mixed.14" x="9.47" y="-4.66" angle="90.00" type="bicycle" speed="2.97" pos="9.47" lane="beg_0" slope="0.00"/>
        <vehicle id="mixed.16" x="6.62" y="-2.96" angle="90.00" type="bicycle" speed="2.46" pos="6.62" lane="beg_1" slope="0.00"/>
        <vehicle id="mixed.17" x="19.42" y="-1.65" angle="90.00" type="car" speed="7.10" pos="19.42" lane="beg_1" slope="0.00"/>
        <vehicle id="mixed.19" x="5.10" y="-5.05" angle="90.00" type="car" speed="0.00" pos="5.10" lane="beg_0" slope="0.00"/>
        <vehicle id="mixed.2" x="153.47" y="-4.95" angle="90.00" type="car" speed="8.93" pos="153.47" lane="beg_0" slope="0.00"/>
        <vehicle id="mixed.3" x="216.89" y="-4.95" angle="90.00" type="car" speed="13.65" pos="216.89" lane="beg_0" slope="0.00"/>
        <vehicle id="mixed.4" x="97.90" y="-6.22" angle="90.00" type="bicycle" speed="7.30" pos="97.90" lane="beg_0" slope="0.00"/>
        <vehicle id="mixed.5" x="181.90" y="-1.65" angle="90.00" type="car" speed="13.76" pos="181.90" lane="beg_1" slope="0.00"/>
        <vehicle id="mixed.6" x="127.92" y="-4.21" angle="90.00" type="car" speed="11.47" pos="127.92" lane="beg_0" slope="0.00"/>
        <vehicle id="mixed.7" x="120.80" y="-1.11" angle="90.00" type="car" speed="10.69" pos="120.80" lane="beg_1" slope="0.00"/>
        <vehicle id="mixed.8" x="100.26" y="-3.75" angle="90.00" type="car" speed="13.23" pos="100.26" lane="beg_0" slope="0.00"/>